# ionicEAP example

42 atoms
3 atom types

0 25.000 xlo xhi
0 25.000 ylo yhi
0 25.000 zlo zhi

Masses

1 1.0080
2 12.0107
3 15.9994

Atoms

   1 2 0.0 -4.25680        0.55730        7.04740
   2 1 0.0 -0.03760       -0.17960       -0.07410
   3 1 0.0  0.02090       -0.06090        1.32030
   4 1 0.0  1.36310       -0.07850        1.66330
   5 2 0.0  2.13020       -0.20170        0.54110
   6 1 0.0  1.28350       -0.26750       -0.55770
   7 1 0.0 -1.01590        0.05810        2.29780
   8 2 0.0 -2.34630        0.09510        1.96250
   9 1 0.0 -3.13530        0.21400        3.09500
  10 1 0.0 -2.25210        0.25180        4.19260
  11 2 0.0 -0.94880        0.15590        3.70430
  12 1 0.0 -4.55130        0.27520        3.04110
  13 1 0.0 -5.33930        0.40880        4.16590
  14 2 0.0 -6.67620        0.44110        3.82620
  15 1 0.0 -6.73540        0.32130        2.41840
  16 1 0.0 -5.43370        0.21980        1.93750
  17 1 0.0 -7.71230        0.57150        4.78600
  18 2 0.0 -9.05330        0.61550        4.44090
  19 1 0.0 -9.83950        0.74420        5.55850
  20 1 0.0 -8.96630        0.78370        6.66680
  21 1 0.0 -7.65950        0.67760        6.19030
  22 2 0.0 -11.26600       0.81410        5.49170
  23 1 0.0 -12.14070       0.75860        4.39910
  24 1 0.0 -13.45680       0.87260        4.89070
  25 2 0.0 -13.37200       0.99600        6.27140
  26 1 0.0 -12.05360       0.95890        6.62230
  27 1 0.0 -4.98570        0.48080        5.10710
  28 2 0.0 -7.63560        0.30750        1.82030
  29 1 0.0 -5.14700        0.11310        0.90090
  30 1 0.0 -2.69510        0.05350        1.01740
  31 2 0.0 -2.53360        0.33620        5.23300
  32 1 0.0 -0.04630        0.15290        4.29840
  33 1 0.0 -9.40950        0.56910        3.49880
  34 1 0.0 -6.76350        0.67400        6.79530
  35 2 0.0 -9.25940        0.87650        7.70270
  36 1 0.0 -11.71010       1.03500        7.56750
  37 1 0.0 -14.14600       1.10570        7.01650
  38 1 0.0 -11.85890       0.64510        3.36120
  39 2 0.0 -14.36880       0.86540        4.31190
  40 1 0.0  1.72750       -0.00540        2.60080
  41 1 0.0  3.20800       -0.23350        0.60130
  42 2 0.0 -0.93630       -0.20350       -0.67530
